% Model:              nanorod_3d_placa.mph
% Version:            COMSOL 5.2.0.166
% Date:               Oct 3 2019, 14:35
% Dimension:          3
% Nodes:              484
% Expressions:        3
% Description:        Arrow volume
% X                       Y                        Z                        VectorX                  VectorY                  VectorZ
-7.999999999999999E-5     -1.600008889186661E-4    3.2874526902273905E-5    0                        -6.858544167703205E-6    -2.4862926819512195E-6
0                         -1.600008889186661E-4    3.2874526902273905E-5    0                        -5.8352291571087525E-6   -2.8449505288301677E-6
8.00000000000001E-5       -1.600008889186661E-4    3.2874526902273905E-5    0                        -5.858477182653962E-6    -3.557537895163238E-6
-1.600000000000001E-4     -8.000044445933305E-5    3.2874526902273905E-5    0                        -4.5740124663900036E-7   -1.1441758668309128E-6
-7.999999999999999E-5     -8.000044445933305E-5    3.2874526902273905E-5    0                        9.327686228777701E-7     -1.043161427783349E-6
0                         -8.000044445933305E-5    3.2874526902273905E-5    0                        1.0774008168459348E-6    -8.036103829181212E-7
8.00000000000001E-5       -8.000044445933305E-5    3.2874526902273905E-5    0                        1.0909536530000865E-6    -8.179329412867808E-7
1.600000000000001E-4      -8.000044445933305E-5    3.2874526902273905E-5    0                        5.412190407284723E-7     -9.303289786406163E-7
-1.600000000000001E-4     0                        3.2874526902273905E-5    0                        1.912440930546755E-6     1.3830329680991028E-7
-7.999999999999999E-5     0                        3.2874526902273905E-5    0                        2.2877843080450513E-6    1.0078045234878268E-7
0                         0                        3.2874526902273905E-5    0                        2.3959517928985694E-6    1.3898494602494564E-7
8.00000000000001E-5       0                        3.2874526902273905E-5    0                        2.261349310542431E-6     2.3529954894692283E-7
1.600000000000001E-4      0                        3.2874526902273905E-5    0                        1.966539989749808E-6     1.3911489894860722E-7
-1.600000000000001E-4     8.000044445933315E-5     3.2874526902273905E-5    0                        -7.522708161931026E-7    1.1611783781665177E-6
-7.999999999999999E-5     8.000044445933315E-5     3.2874526902273905E-5    0                        -2.4896284850722263E-8   1.0636538111249282E-6
0                         8.000044445933315E-5     3.2874526902273905E-5    0                        1.581742386783067E-7     1.03918650112984E-6
8.00000000000001E-5       8.000044445933315E-5     3.2874526902273905E-5    0                        -1.487631287424978E-7    1.1941969883458993E-6
1.600000000000001E-4      8.000044445933315E-5     3.2874526902273905E-5    0                        -1.3974914544900883E-6   1.3360598311797962E-6
-7.999999999999999E-5     1.600008889186662E-4     3.2874526902273905E-5    0                        -6.418024752301972E-6    3.0699175405217614E-6
0                         1.600008889186662E-4     3.2874526902273905E-5    0                        -5.8538673538197335E-6   2.185310760974303E-6
8.00000000000001E-5       1.600008889186662E-4     3.2874526902273905E-5    0                        -6.917235660856382E-6    2.096940007962432E-6
-7.999999999999999E-5     -1.600008889186661E-4    9.862358070682171E-5     0                        -1.2690011141186114E-5   -1.4057168098521335E-5
0                         -1.600008889186661E-4    9.862358070682171E-5     0                        -1.2576357060034429E-5   -1.4103660832000365E-5
8.00000000000001E-5       -1.600008889186661E-4    9.862358070682171E-5     0                        -1.2654605555389559E-5   -1.4595614033927621E-5
-1.600000000000001E-4     -8.000044445933305E-5    9.862358070682171E-5     0                        -2.2263579071223296E-6   -6.066128876528412E-6
-7.999999999999999E-5     -8.000044445933305E-5    9.862358070682171E-5     0                        -1.4471353858201706E-6   -5.653576273056296E-6
0                         -8.000044445933305E-5    9.862358070682171E-5     0                        -8.334973367428712E-7    -5.245014008552794E-6
8.00000000000001E-5       -8.000044445933305E-5    9.862358070682171E-5     0                        -1.4712258697991111E-6   -5.093151755342206E-6
1.600000000000001E-4      -8.000044445933305E-5    9.862358070682171E-5     0                        -2.184260093858373E-6    -5.611553838310043E-6
-1.600000000000001E-4     0                        9.862358070682171E-5     0                        -1.5286787784224493E-7   9.199855076158904E-7
-7.999999999999999E-5     0                        9.862358070682171E-5     0                        9.266701535707239E-7     1.0712435024989535E-6
0                         0                        9.862358070682171E-5     0                        1.1398823025060269E-6    1.10709676018677E-6
8.00000000000001E-5       0                        9.862358070682171E-5     0                        7.479494391716208E-7     1.0747016320079249E-6
1.600000000000001E-4      0                        9.862358070682171E-5     0                        -8.88201303058996E-8     1.1344318233591846E-6
-1.600000000000001E-4     8.000044445933315E-5     9.862358070682171E-5     0                        -4.96054120772057E-6     7.049469030770346E-6
-7.999999999999999E-5     8.000044445933315E-5     9.862358070682171E-5     0                        -4.205850330337459E-6    6.8268473406979185E-6
0                         8.000044445933315E-5     9.862358070682171E-5     0                        -3.891476961356643E-6    6.627710062163261E-6
8.00000000000001E-5       8.000044445933315E-5     9.862358070682171E-5     0                        -4.1892900670945775E-6   7.0179336438345014E-6
1.600000000000001E-4      8.000044445933315E-5     9.862358070682171E-5     0                        -4.850604581490335E-6    7.600255358114962E-6
-7.999999999999999E-5     1.600008889186662E-4     9.862358070682171E-5     0                        -1.4601602231509268E-5   1.3368669649755301E-5
0                         1.600008889186662E-4     9.862358070682171E-5     0                        -1.484446740836121E-5    1.3787342060548635E-5
8.00000000000001E-5       1.600008889186662E-4     9.862358070682171E-5     0                        -1.4533900099478519E-5   1.3770578673472491E-5
-7.999999999999999E-5     -1.600008889186661E-4    1.6437263451136953E-4    0                        -1.953627610686755E-5    -2.6160421914797916E-5
0                         -1.600008889186661E-4    1.6437263451136953E-4    0                        -1.9399590066134885E-5   -2.5986697585912054E-5
8.00000000000001E-5       -1.600008889186661E-4    1.6437263451136953E-4    0                        -1.9631965560124144E-5   -2.6440345589920428E-5
-1.600000000000001E-4     -8.000044445933305E-5    1.6437263451136953E-4    0                        -9.75449014746377E-6     -1.1575291857555161E-5
-7.999999999999999E-5     -8.000044445933305E-5    1.6437263451136953E-4    0                        -9.404387556704314E-6    -1.128879749140964E-5
0                         -8.000044445933305E-5    1.6437263451136953E-4    0                        -9.356430001098828E-6    -1.1029448655690457E-5
8.00000000000001E-5       -8.000044445933305E-5    1.6437263451136953E-4    0                        -9.586383693073876E-6    -1.0976105155300354E-5
1.600000000000001E-4      -8.000044445933305E-5    1.6437263451136953E-4    0                        -9.940651401416626E-6    -1.1245519124226468E-5
-1.600000000000001E-4     0                        1.6437263451136953E-4    0                        -8.41606386411291E-6     1.5541209683169975E-6
-7.999999999999999E-5     0                        1.6437263451136953E-4    0                        -8.201138698575069E-6    1.6680165393179638E-6
0                         0                        1.6437263451136953E-4    0                        -7.957391606758528E-6    1.662601562081774E-6
8.00000000000001E-5       0                        1.6437263451136953E-4    0                        -8.185506917371986E-6    1.6974838981290293E-6
1.600000000000001E-4      0                        1.6437263451136953E-4    0                        -8.471874841181071E-6    1.762378542150244E-6
-1.600000000000001E-4     8.000044445933315E-5     1.6437263451136953E-4    0                        -1.4052275847313724E-5   1.354430893781102E-5
-7.999999999999999E-5     8.000044445933315E-5     1.6437263451136953E-4    0                        -1.377513081520297E-5    1.3354579408482655E-5
0                         8.000044445933315E-5     1.6437263451136953E-4    0                        -1.3709352806293075E-5   1.3172068358763445E-5
8.00000000000001E-5       8.000044445933315E-5     1.6437263451136953E-4    0                        -1.390335825473084E-5    1.3318354511967439E-5
1.600000000000001E-4      8.000044445933315E-5     1.6437263451136953E-4    0                        -1.4022608702770784E-5   1.3878352420128761E-5
-7.999999999999999E-5     1.600008889186662E-4     1.6437263451136953E-4    0                        -2.4836520606571186E-5   2.4823946617614714E-5
0                         1.600008889186662E-4     1.6437263451136953E-4    0                        -2.4759526443683962E-5   2.4878089997946237E-5
8.00000000000001E-5       1.600008889186662E-4     1.6437263451136953E-4    0                        -2.4775622425704543E-5   2.5000093232598235E-5
-7.999999999999999E-5     -1.600008889186661E-4    2.3012168831591733E-4    0                        -3.040901770878545E-5    -3.877398951434468E-5
0                         -1.600008889186661E-4    2.3012168831591733E-4    0                        -3.0274472362815677E-5   -3.8761207163111424E-5
8.00000000000001E-5       -1.600008889186661E-4    2.3012168831591733E-4    0                        -3.0582098618526166E-5   -3.889964224674892E-5
-1.600000000000001E-4     -8.000044445933305E-5    2.3012168831591733E-4    0                        -2.223030701214464E-5    -1.7842206665959997E-5
-7.999999999999999E-5     -8.000044445933305E-5    2.3012168831591733E-4    0                        -2.2030013481878666E-5   -1.752032907947258E-5
0                         -8.000044445933305E-5    2.3012168831591733E-4    0                        -2.1953567819744066E-5   -1.7253012767083413E-5
8.00000000000001E-5       -8.000044445933305E-5    2.3012168831591733E-4    0                        -2.208680387572664E-5    -1.7420439899507607E-5
1.600000000000001E-4      -8.000044445933305E-5    2.3012168831591733E-4    0                        -2.2249818673423063E-5   -1.7613892057405018E-5
-1.600000000000001E-4     0                        2.3012168831591733E-4    0                        -2.2237848047016807E-5   1.300157927928306E-6
-7.999999999999999E-5     0                        2.3012168831591733E-4    0                        -2.204223645569728E-5    1.478734250130778E-6
0                         0                        2.3012168831591733E-4    0                        -2.1960682124279532E-5   1.473894712385555E-6
8.00000000000001E-5       0                        2.3012168831591733E-4    0                        -2.207321094941108E-5    1.4865732459274705E-6
1.600000000000001E-4      0                        2.3012168831591733E-4    0                        -2.2256797720633455E-5   1.5523317425921466E-6
-1.600000000000001E-4     8.000044445933315E-5     2.3012168831591733E-4    0                        -2.8806061680991744E-5   1.8939225248640123E-5
-7.999999999999999E-5     8.000044445933315E-5     2.3012168831591733E-4    0                        -2.8725641736314513E-5   1.8769055877088515E-5
0                         8.000044445933315E-5     2.3012168831591733E-4    0                        -2.8638216620777535E-5   1.8717966004325858E-5
8.00000000000001E-5       8.000044445933315E-5     2.3012168831591733E-4    0                        -2.8763353190752478E-5   1.886067243328411E-5
1.600000000000001E-4      8.000044445933315E-5     2.3012168831591733E-4    0                        -2.8748454803644435E-5   1.9071687619565658E-5
-7.999999999999999E-5     1.600008889186662E-4     2.3012168831591733E-4    0                        -4.058884493117188E-5    3.522713649760547E-5
0                         1.600008889186662E-4     2.3012168831591733E-4    0                        -4.0464940516254996E-5   3.5216527140651553E-5
8.00000000000001E-5       1.600008889186662E-4     2.3012168831591733E-4    0                        -4.0583888200071076E-5   3.5268984983556125E-5
-7.999999999999999E-5     -1.600008889186661E-4    2.958707421204651E-4     0                        -4.560510042044208E-5    -5.2638963445842684E-5
0                         -1.600008889186661E-4    2.958707421204651E-4     0                        -4.557457652161045E-5    -5.203833124920105E-5
8.00000000000001E-5       -1.600008889186661E-4    2.958707421204651E-4     0                        -4.566875200840496E-5    -5.2486817172915244E-5
-1.600000000000001E-4     -8.000044445933305E-5    2.958707421204651E-4     0                        -3.936120738454098E-5    -2.5164226760484876E-5
-7.999999999999999E-5     -8.000044445933305E-5    2.958707421204651E-4     0                        -3.932132739744547E-5    -2.4656684513999444E-5
0                         -8.000044445933305E-5    2.958707421204651E-4     0                        -3.9172874938754745E-5   -2.4536092669293202E-5
8.00000000000001E-5       -8.000044445933305E-5    2.958707421204651E-4     0                        -3.934847785031162E-5    -2.4620515468304354E-5
1.600000000000001E-4      -8.000044445933305E-5    2.958707421204651E-4     0                        -3.954594772118976E-5    -2.506176788446409E-5
-1.600000000000001E-4     0                        2.958707421204651E-4     0                        -4.112982435637146E-5    -1.994062309087125E-7
-7.999999999999999E-5     0                        2.958707421204651E-4     0                        -4.1092129359341915E-5   -3.070407872681657E-8
0                         0                        2.958707421204651E-4     0                        -4.09747354441698E-5     5.942897654686235E-8
8.00000000000001E-5       0                        2.958707421204651E-4     0                        -4.10132623399794E-5     4.305659345429881E-8
1.600000000000001E-4      0                        2.958707421204651E-4     0                        -4.111208902550631E-5    -8.933351772688151E-8
-1.600000000000001E-4     8.000044445933315E-5     2.958707421204651E-4     0                        -4.908535099485538E-5    2.2733235102765507E-5
-7.999999999999999E-5     8.000044445933315E-5     2.958707421204651E-4     0                        -4.8904699781935176E-5   2.2533884029454162E-5
0                         8.000044445933315E-5     2.958707421204651E-4     0                        -4.886793782931216E-5    2.2559460698076803E-5
8.00000000000001E-5       8.000044445933315E-5     2.958707421204651E-4     0                        -4.894182175529732E-5    2.2675530323273508E-5
1.600000000000001E-4      8.000044445933315E-5     2.958707421204651E-4     0                        -4.9092711930875685E-5   2.288747177394255E-5
-7.999999999999999E-5     1.600008889186662E-4     2.958707421204651E-4     0                        -6.184693007183982E-5    4.4004818454618634E-5
0                         1.600008889186662E-4     2.958707421204651E-4     0                        -6.178558852824635E-5    4.396402960108667E-5
8.00000000000001E-5       1.600008889186662E-4     2.958707421204651E-4     0                        -6.186928057344638E-5    4.406271015193049E-5
-7.999999999999999E-5     -1.600008889186661E-4    3.6161979592501294E-4    0                        -6.496066185567931E-5    -6.730278616138889E-5
0                         -1.600008889186661E-4    3.6161979592501294E-4    0                        -6.487563645095157E-5    -6.682292279015487E-5
8.00000000000001E-5       -1.600008889186661E-4    3.6161979592501294E-4    0                        -6.502322810392391E-5    -6.728933792895217E-5
-1.600000000000001E-4     -8.000044445933305E-5    3.6161979592501294E-4    0                        -6.113669741454576E-5    -3.404735349952312E-5
-7.999999999999999E-5     -8.000044445933305E-5    3.6161979592501294E-4    0                        -6.106371454103697E-5    -3.329120843973444E-5
0                         -8.000044445933305E-5    3.6161979592501294E-4    0                        -6.105901534944808E-5    -3.316312685915306E-5
8.00000000000001E-5       -8.000044445933305E-5    3.6161979592501294E-4    0                        -6.104755603748918E-5    -3.330701045412308E-5
1.600000000000001E-4      -8.000044445933305E-5    3.6161979592501294E-4    0                        -6.114452621923702E-5    -3.387190245335672E-5
-1.600000000000001E-4     0                        3.6161979592501294E-4    0                        -6.469885106468082E-5    -3.407415208789402E-6
-7.999999999999999E-5     0                        3.6161979592501294E-4    0                        -6.468559264155867E-5    -3.2386420547604104E-6
0                         0                        3.6161979592501294E-4    0                        -6.465308322244267E-5    -3.196531217130072E-6
8.00000000000001E-5       0                        3.6161979592501294E-4    0                        -6.471343103888415E-5    -3.2134131074615582E-6
1.600000000000001E-4      0                        3.6161979592501294E-4    0                        -6.476372910877538E-5    -3.27947319513219E-6
-1.600000000000001E-4     8.000044445933315E-5     3.6161979592501294E-4    0                        -7.440006194418689E-5    2.47199567063096E-5
-7.999999999999999E-5     8.000044445933315E-5     3.6161979592501294E-4    0                        -7.418446781398448E-5    2.447463440957169E-5
0                         8.000044445933315E-5     3.6161979592501294E-4    0                        -7.41304226333048E-5     2.44916688702942E-5
8.00000000000001E-5       8.000044445933315E-5     3.6161979592501294E-4    0                        -7.416665611276512E-5    2.4515755479259434E-5
1.600000000000001E-4      8.000044445933315E-5     3.6161979592501294E-4    0                        -7.437507038497341E-5    2.4750295431431657E-5
-7.999999999999999E-5     1.600008889186662E-4     3.6161979592501294E-4    0                        -8.857282730749488E-5    5.075170072159664E-5
0                         1.600008889186662E-4     3.6161979592501294E-4    0                        -8.852158881067868E-5    5.0682464632813635E-5
8.00000000000001E-5       1.600008889186662E-4     3.6161979592501294E-4    0                        -8.85007650083858E-5     5.0818896388929616E-5
-7.999999999999999E-5     -1.600008889186661E-4    4.273688497295607E-4     0                        -8.805018977495863E-5    -8.320691933505072E-5
0                         -1.600008889186661E-4    4.273688497295607E-4     0                        -8.801508889296482E-5    -8.264093810940401E-5
8.00000000000001E-5       -1.600008889186661E-4    4.273688497295607E-4     0                        -8.810620372117005E-5    -8.31079966618679E-5
-1.600000000000001E-4     -8.000044445933305E-5    4.273688497295607E-4     0                        -8.691166673388289E-5    -4.441718521138438E-5
-7.999999999999999E-5     -8.000044445933305E-5    4.273688497295607E-4     0                        -8.70510640174463E-5     -4.3630104862703184E-5
0                         -8.000044445933305E-5    4.273688497295607E-4     0                        -8.703472402484592E-5    -4.343551781130088E-5
8.00000000000001E-5       -8.000044445933305E-5    4.273688497295607E-4     0                        -8.707616044781896E-5    -4.3679212743003837E-5
1.600000000000001E-4      -8.000044445933305E-5    4.273688497295607E-4     0                        -8.69888986667435E-5     -4.436620944343259E-5
-1.600000000000001E-4     0                        4.273688497295607E-4     0                        -9.282398542086561E-5    -8.591212537322797E-6
-7.999999999999999E-5     0                        4.273688497295607E-4     0                        -9.277335654704394E-5    -8.452738530802956E-6
0                         0                        4.273688497295607E-4     0                        -9.278367638596415E-5    -8.34462140909603E-6
8.00000000000001E-5       0                        4.273688497295607E-4     0                        -9.284323748873108E-5    -8.422435969339694E-6
1.600000000000001E-4      0                        4.273688497295607E-4     0                        -9.286164231958258E-5    -8.501112264371563E-6
-1.600000000000001E-4     8.000044445933315E-5     4.273688497295607E-4     0                        -1.0442861262543306E-4   2.4358495925530974E-5
-7.999999999999999E-5     8.000044445933315E-5     4.273688497295607E-4     0                        -1.0417673235860109E-4   2.419944969758002E-5
0                         8.000044445933315E-5     4.273688497295607E-4     0                        -1.0408448237805384E-4   2.4143501837429524E-5
8.00000000000001E-5       8.000044445933315E-5     4.273688497295607E-4     0                        -1.0415744002684864E-4   2.4197996400115457E-5
1.600000000000001E-4      8.000044445933315E-5     4.273688497295607E-4     0                        -1.0437288731659301E-4   2.4470400241460716E-5
-7.999999999999999E-5     1.600008889186662E-4     4.273688497295607E-4     0                        -1.2017507399183354E-4   5.5002837116634115E-5
0                         1.600008889186662E-4     4.273688497295607E-4     0                        -1.2001409523435757E-4   5.490397541159893E-5
8.00000000000001E-5       1.600008889186662E-4     4.273688497295607E-4     0                        -1.2024519097862777E-4   5.5084107376715954E-5
-7.999999999999999E-5     -1.600008889186661E-4    4.931179035341085E-4     0                        -1.145757040699053E-4    -1.0047517983067116E-4
0                         -1.600008889186661E-4    4.931179035341085E-4     0                        -1.1484219436211434E-4   -9.99027429371666E-5
8.00000000000001E-5       -1.600008889186661E-4    4.931179035341085E-4     0                        -1.1465288316557259E-4   -1.004191847449554E-4
-1.600000000000001E-4     -8.000044445933305E-5    4.931179035341085E-4     0                        -1.1656913987841365E-4   -5.663458208211696E-5
-7.999999999999999E-5     -8.000044445933305E-5    4.931179035341085E-4     0                        -1.1685920897128697E-4   -5.5778118386905985E-5
0                         -8.000044445933305E-5    4.931179035341085E-4     0                        -1.1681392369762365E-4   -5.553678994785622E-5
8.00000000000001E-5       -8.000044445933305E-5    4.931179035341085E-4     0                        -1.1684362379714E-4      -5.5862679900902656E-5
1.600000000000001E-4      -8.000044445933305E-5    4.931179035341085E-4     0                        -1.1654050604323467E-4   -5.6652590997544725E-5
-1.600000000000001E-4     0                        4.931179035341085E-4     0                        -1.2514256374789463E-4   -1.605179284613053E-5
-7.999999999999999E-5     0                        4.931179035341085E-4     0                        -1.250785789397777E-4    -1.5811724672926516E-5
0                         0                        4.931179035341085E-4     0                        -1.25119590346298E-4     -1.574096675288482E-5
8.00000000000001E-5       0                        4.931179035341085E-4     0                        -1.2512872286848391E-4   -1.5819121282869922E-5
1.600000000000001E-4      0                        4.931179035341085E-4     0                        -1.2520252523127103E-4   -1.5948544461776042E-5
-1.600000000000001E-4     8.000044445933315E-5     4.931179035341085E-4     0                        -1.387991978803065E-4    2.1589112070049322E-5
-7.999999999999999E-5     8.000044445933315E-5     4.931179035341085E-4     0                        -1.3854569065807645E-4   2.1284767054652117E-5
0                         8.000044445933315E-5     4.931179035341085E-4     0                        -1.3844850448786888E-4   2.1207513667687977E-5
8.00000000000001E-5       8.000044445933315E-5     4.931179035341085E-4     0                        -1.3850229689080007E-4   2.1285787754749768E-5
1.600000000000001E-4      8.000044445933315E-5     4.931179035341085E-4     0                        -1.3882086748868855E-4   2.159346953618731E-5
-7.999999999999999E-5     1.600008889186662E-4     4.931179035341085E-4     0                        -1.564876424788461E-4    5.6530954372120336E-5
0                         1.600008889186662E-4     4.931179035341085E-4     0                        -1.5627315396783218E-4   5.634819725664233E-5
8.00000000000001E-5       1.600008889186662E-4     4.931179035341085E-4     0                        -1.5644418693545398E-4   5.6618488297187284E-5
-7.999999999999999E-5     -1.600008889186661E-4    5.588669573386564E-4     0                        -1.4468310317635767E-4   -1.1918097936026337E-4
0                         -1.600008889186661E-4    5.588669573386564E-4     0                        -1.4487644565415117E-4   -1.1867301768886903E-4
8.00000000000001E-5       -1.600008889186661E-4    5.588669573386564E-4     0                        -1.4473502073934343E-4   -1.192179989262522E-4
-1.600000000000001E-4     -8.000044445933305E-5    5.588669573386564E-4     0                        -1.4993124767405904E-4   -7.081988507564742E-5
-7.999999999999999E-5     -8.000044445933305E-5    5.588669573386564E-4     0                        -1.5028050372279815E-4   -7.005103264902336E-5
0                         -8.000044445933305E-5    5.588669573386564E-4     0                        -1.50402468671756E-4     -6.972213274805889E-5
8.00000000000001E-5       -8.000044445933305E-5    5.588669573386564E-4     0                        -1.5025602986179973E-4   -7.000533479992963E-5
1.600000000000001E-4      -8.000044445933305E-5    5.588669573386564E-4     0                        -1.4992618206724853E-4   -7.08844555603909E-5
-1.600000000000001E-4     0                        5.588669573386564E-4     0                        -1.612099930192099E-4    -2.5864773517038286E-5
-7.999999999999999E-5     0                        5.588669573386564E-4     0                        -1.612073608504568E-4    -2.5655727238963966E-5
0                         0                        5.588669573386564E-4     0                        -1.610932149407889E-4    -2.5551005380384262E-5
8.00000000000001E-5       0                        5.588669573386564E-4     0                        -1.611885601790031E-4    -2.5648925062548155E-5
1.600000000000001E-4      0                        5.588669573386564E-4     0                        -1.6121882763435127E-4   -2.5766433023875522E-5
-1.600000000000001E-4     8.000044445933315E-5     5.588669573386564E-4     0                        -1.771137037107308E-4    1.598929474141838E-5
-7.999999999999999E-5     8.000044445933315E-5     5.588669573386564E-4     0                        -1.7677227678318663E-4   1.5702767665017982E-5
0                         8.000044445933315E-5     5.588669573386564E-4     0                        -1.7669956289205664E-4   1.5703335941448808E-5
8.00000000000001E-5       8.000044445933315E-5     5.588669573386564E-4     0                        -1.7677393746889553E-4   1.569736082228304E-5
1.600000000000001E-4      8.000044445933315E-5     5.588669573386564E-4     0                        -1.7710689536950278E-4   1.600016221440805E-5
-7.999999999999999E-5     1.600008889186662E-4     5.588669573386564E-4     0                        -1.966688139438596E-4    5.505474842144903E-5
0                         1.600008889186662E-4     5.588669573386564E-4     0                        -1.9645278328820148E-4   5.486498865192923E-5
8.00000000000001E-5       1.600008889186662E-4     5.588669573386564E-4     0                        -1.9663976497948454E-4   5.508308690522621E-5
-7.999999999999999E-5     -1.600008889186661E-4    6.246160111432041E-4     0                        -1.780768862491051E-4    -1.3957022681743822E-4
0                         -1.600008889186661E-4    6.246160111432041E-4     0                        -1.782404355188013E-4    -1.3901924625597388E-4
8.00000000000001E-5       -1.600008889186661E-4    6.246160111432041E-4     0                        -1.779286638265889E-4    -1.395443550067641E-4
-1.600000000000001E-4     -8.000044445933305E-5    6.246160111432041E-4     0                        -1.8663673277155422E-4   -8.71744438812691E-5
-7.999999999999999E-5     -8.000044445933305E-5    6.246160111432041E-4     0                        -1.8699219669995982E-4   -8.641323501771975E-5
0                         -8.000044445933305E-5    6.246160111432041E-4     0                        -1.8710335732104378E-4   -8.605870289942284E-5
8.00000000000001E-5       -8.000044445933305E-5    6.246160111432041E-4     0                        -1.870214970701228E-4    -8.634400812075447E-5
1.600000000000001E-4      -8.000044445933305E-5    6.246160111432041E-4     0                        -1.86599918653279E-4     -8.709692129208033E-5
-1.600000000000001E-4     0                        6.246160111432041E-4     0                        -2.0060567144699427E-4   -3.813139918000816E-5
-7.999999999999999E-5     0                        6.246160111432041E-4     0                        -2.0063899956543078E-4   -3.7940230094798134E-5
0                         0                        6.246160111432041E-4     0                        -2.0069153335702878E-4   -3.785212961331669E-5